# vtk DataFile Version 3.0
all_agent_disks_with_color
ASCII
DATASET POLYDATA
POINTS 204 float
2.33006 0.108981 0
2.48006 0.108981 0.02
2.46864 0.166383 0.02
2.43612 0.215047 0.02
2.38746 0.247562 0.02
2.33006 0.258981 0.02
2.27265 0.247562 0.02
2.22399 0.215047 0.02
2.19147 0.166383 0.02
2.18006 0.10898 0.02
2.19147 0.051578 0.02
2.22399 0.00291447 0.02
2.27265 -0.0296015 0.02
2.33006 -0.0410195 0.02
2.38746 -0.0296014 0.02
2.43612 0.00291453 0.02
2.46864 0.051578 0.02
4.33958 7.40005 0
4.48958 7.40005 0.02
4.47816 7.45745 0.02
4.44564 7.50612 0.02
4.39698 7.53863 0.02
4.33958 7.55005 0.02
4.28217 7.53863 0.02
4.23351 7.50612 0.02
4.20099 7.45745 0.02
4.18958 7.40005 0.02
4.20099 7.34265 0.02
4.23351 7.29398 0.02
4.28217 7.26147 0.02
4.33958 7.25005 0.02
4.39698 7.26147 0.02
4.44564 7.29398 0.02
4.47816 7.34265 0.02
5.33216 9.41984 0
5.48216 9.41984 0.02
5.47074 9.47724 0.02
5.43822 9.52591 0.02
5.38956 9.55842 0.02
5.33216 9.56984 0.02
5.27475 9.55842 0.02
5.22609 9.52591 0.02
5.19358 9.47724 0.02
5.18216 9.41984 0.02
5.19358 9.36244 0.02
5.22609 9.31377 0.02
5.27475 9.28126 0.02
5.33216 9.26984 0.02
5.38956 9.28126 0.02
5.43822 9.31377 0.02
5.47074 9.36244 0.02
6.16833 8.70982 0
6.31833 8.70982 0.02
6.30692 8.76722 0.02
6.2744 8.81589 0.02
6.22574 8.8484 0.02
6.16833 8.85982 0.02
6.11093 8.8484 0.02
6.06227 8.81589 0.02
6.02975 8.76722 0.02
6.01833 8.70982 0.02
6.02975 8.65242 0.02
6.06227 8.60375 0.02
6.11093 8.57124 0.02
6.16833 8.55982 0.02
6.22574 8.57124 0.02
6.2744 8.60375 0.02
6.30692 8.65242 0.02
5.71705 4.28357 0
5.86705 4.28357 0.02
5.85563 4.34097 0.02
5.82311 4.38964 0.02
5.77445 4.42215 0.02
5.71705 4.43357 0.02
5.65964 4.42215 0.02
5.61098 4.38964 0.02
5.57846 4.34097 0.02
5.56705 4.28357 0.02
5.57846 4.22617 0.02
5.61098 4.1775 0.02
5.65964 4.14499 0.02
5.71705 4.13357 0.02
5.77445 4.14499 0.02
5.82311 4.1775 0.02
5.85563 4.22617 0.02
5.31992 9.14966 0
5.46992 9.14966 0.02
5.4585 9.20706 0.02
5.42599 9.25573 0.02
5.37732 9.28824 0.02
5.31992 9.29966 0.02
5.26252 9.28824 0.02
5.21386 9.25573 0.02
5.18134 9.20706 0.02
5.16992 9.14966 0.02
5.18134 9.09226 0.02
5.21386 9.0436 0.02
5.26252 9.01108 0.02
5.31992 8.99966 0.02
5.37732 9.01108 0.02
5.42599 9.0436 0.02
5.4585 9.09226 0.02
2.35 3.31976 0
2.4 3.31976 0.02
2.39619 3.3389 0.02
2.38536 3.35512 0.02
2.36913 3.36596 0.02
2.35 3.36976 0.02
2.33087 3.36596 0.02
2.31464 3.35512 0.02
2.30381 3.3389 0.02
2.3 3.31976 0.02
2.30381 3.30063 0.02
2.31464 3.28441 0.02
2.33087 3.27357 0.02
2.35 3.26976 0.02
2.36913 3.27357 0.02
2.38536 3.28441 0.02
2.39619 3.30063 0.02
2.27154 8.99656 0
2.42154 8.99656 0.02
2.41013 9.05397 0.02
2.37761 9.10263 0.02
2.32895 9.13514 0.02
2.27154 9.14656 0.02
2.21414 9.13514 0.02
2.16548 9.10263 0.02
2.13296 9.05397 0.02
2.12154 8.99656 0.02
2.13296 8.93916 0.02
2.16548 8.8905 0.02
2.21414 8.85798 0.02
2.27154 8.84656 0.02
2.32895 8.85798 0.02
2.37761 8.8905 0.02
2.41013 8.93916 0.02
6.44719 8.4407 0
6.59719 8.4407 0.02
6.58578 8.4981 0.02
6.55326 8.54677 0.02
6.5046 8.57928 0.02
6.44719 8.5907 0.02
6.38979 8.57928 0.02
6.34113 8.54677 0.02
6.30861 8.4981 0.02
6.29719 8.4407 0.02
6.30861 8.3833 0.02
6.34113 8.33463 0.02
6.38979 8.30212 0.02
6.44719 8.2907 0.02
6.5046 8.30212 0.02
6.55326 8.33463 0.02
6.58578 8.3833 0.02
8.92537 8.7037 0
9.07537 8.7037 0.02
9.06396 8.7611 0.02
9.03144 8.80976 0.02
8.98278 8.84228 0.02
8.92537 8.8537 0.02
8.86797 8.84228 0.02
8.81931 8.80976 0.02
8.78679 8.7611 0.02
8.77537 8.7037 0.02
8.78679 8.64629 0.02
8.81931 8.59763 0.02
8.86797 8.56511 0.02
8.92537 8.5537 0.02
8.98278 8.56511 0.02
9.03144 8.59763 0.02
9.06396 8.64629 0.02
1.2074 3.54133 0
1.3574 3.54133 0.02
1.34598 3.59874 0.02
1.31346 3.6474 0.02
1.2648 3.67992 0.02
1.2074 3.69133 0.02
1.14999 3.67992 0.02
1.10133 3.6474 0.02
1.06881 3.59874 0.02
1.0574 3.54133 0.02
1.06881 3.48393 0.02
1.10133 3.43527 0.02
1.14999 3.40275 0.02
1.2074 3.39133 0.02
1.2648 3.40275 0.02
1.31346 3.43527 0.02
1.34598 3.48393 0.02
6.45 3.78164 0
6.5 3.78164 0.02
6.49619 3.80078 0.02
6.48536 3.817 0.02
6.46913 3.82784 0.02
6.45 3.83164 0.02
6.43087 3.82784 0.02
6.41464 3.817 0.02
6.40381 3.80078 0.02
6.4 3.78164 0.02
6.40381 3.76251 0.02
6.41464 3.74629 0.02
6.43087 3.73545 0.02
6.45 3.73164 0.02
6.46913 3.73545 0.02
6.48536 3.74629 0.02
6.49619 3.76251 0.02
POLYGONS 192 768
3 0 1 2
3 0 2 3
3 0 3 4
3 0 4 5
3 0 5 6
3 0 6 7
3 0 7 8
3 0 8 9
3 0 9 10
3 0 10 11
3 0 11 12
3 0 12 13
3 0 13 14
3 0 14 15
3 0 15 16
3 0 16 1
3 17 18 19
3 17 19 20
3 17 20 21
3 17 21 22
3 17 22 23
3 17 23 24
3 17 24 25
3 17 25 26
3 17 26 27
3 17 27 28
3 17 28 29
3 17 29 30
3 17 30 31
3 17 31 32
3 17 32 33
3 17 33 18
3 34 35 36
3 34 36 37
3 34 37 38
3 34 38 39
3 34 39 40
3 34 40 41
3 34 41 42
3 34 42 43
3 34 43 44
3 34 44 45
3 34 45 46
3 34 46 47
3 34 47 48
3 34 48 49
3 34 49 50
3 34 50 35
3 51 52 53
3 51 53 54
3 51 54 55
3 51 55 56
3 51 56 57
3 51 57 58
3 51 58 59
3 51 59 60
3 51 60 61
3 51 61 62
3 51 62 63
3 51 63 64
3 51 64 65
3 51 65 66
3 51 66 67
3 51 67 52
3 68 69 70
3 68 70 71
3 68 71 72
3 68 72 73
3 68 73 74
3 68 74 75
3 68 75 76
3 68 76 77
3 68 77 78
3 68 78 79
3 68 79 80
3 68 80 81
3 68 81 82
3 68 82 83
3 68 83 84
3 68 84 69
3 85 86 87
3 85 87 88
3 85 88 89
3 85 89 90
3 85 90 91
3 85 91 92
3 85 92 93
3 85 93 94
3 85 94 95
3 85 95 96
3 85 96 97
3 85 97 98
3 85 98 99
3 85 99 100
3 85 100 101
3 85 101 86
3 102 103 104
3 102 104 105
3 102 105 106
3 102 106 107
3 102 107 108
3 102 108 109
3 102 109 110
3 102 110 111
3 102 111 112
3 102 112 113
3 102 113 114
3 102 114 115
3 102 115 116
3 102 116 117
3 102 117 118
3 102 118 103
3 119 120 121
3 119 121 122
3 119 122 123
3 119 123 124
3 119 124 125
3 119 125 126
3 119 126 127
3 119 127 128
3 119 128 129
3 119 129 130
3 119 130 131
3 119 131 132
3 119 132 133
3 119 133 134
3 119 134 135
3 119 135 120
3 136 137 138
3 136 138 139
3 136 139 140
3 136 140 141
3 136 141 142
3 136 142 143
3 136 143 144
3 136 144 145
3 136 145 146
3 136 146 147
3 136 147 148
3 136 148 149
3 136 149 150
3 136 150 151
3 136 151 152
3 136 152 137
3 153 154 155
3 153 155 156
3 153 156 157
3 153 157 158
3 153 158 159
3 153 159 160
3 153 160 161
3 153 161 162
3 153 162 163
3 153 163 164
3 153 164 165
3 153 165 166
3 153 166 167
3 153 167 168
3 153 168 169
3 153 169 154
3 170 171 172
3 170 172 173
3 170 173 174
3 170 174 175
3 170 175 176
3 170 176 177
3 170 177 178
3 170 178 179
3 170 179 180
3 170 180 181
3 170 181 182
3 170 182 183
3 170 183 184
3 170 184 185
3 170 185 186
3 170 186 171
3 187 188 189
3 187 189 190
3 187 190 191
3 187 191 192
3 187 192 193
3 187 193 194
3 187 194 195
3 187 195 196
3 187 196 197
3 187 197 198
3 187 198 199
3 187 199 200
3 187 200 201
3 187 201 202
3 187 202 203
3 187 203 188
CELL_DATA 192
SCALARS agent_type int 1
LOOKUP_TABLE default
2
2
2
2
2
2
2
2
2
2
2
2
2
2
2
2
2
2
2
2
2
2
2
2
2
2
2
2
2
2
2
2
2
2
2
2
2
2
2
2
2
2
2
2
2
2
2
2
2
2
2
2
2
2
2
2
2
2
2
2
2
2
2
2
2
2
2
2
2
2
2
2
2
2
2
2
2
2
2
2
2
2
2
2
2
2
2
2
2
2
2
2
2
2
2
2
-1
-1
-1
-1
-1
-1
-1
-1
-1
-1
-1
-1
-1
-1
-1
-1
2
2
2
2
2
2
2
2
2
2
2
2
2
2
2
2
2
2
2
2
2
2
2
2
2
2
2
2
2
2
2
2
2
2
2
2
2
2
2
2
2
2
2
2
2
2
2
2
2
2
2
2
2
2
2
2
2
2
2
2
2
2
2
2
-1
-1
-1
-1
-1
-1
-1
-1
-1
-1
-1
-1
-1
-1
-1
-1
SCALARS agent_id int 1
LOOKUP_TABLE default
5
5
5
5
5
5
5
5
5
5
5
5
5
5
5
5
2
2
2
2
2
2
2
2
2
2
2
2
2
2
2
2
1
1
1
1
1
1
1
1
1
1
1
1
1
1
1
1
6
6
6
6
6
6
6
6
6
6
6
6
6
6
6
6
10
10
10
10
10
10
10
10
10
10
10
10
10
10
10
10
9
9
9
9
9
9
9
9
9
9
9
9
9
9
9
9
20
20
20
20
20
20
20
20
20
20
20
20
20
20
20
20
8
8
8
8
8
8
8
8
8
8
8
8
8
8
8
8
4
4
4
4
4
4
4
4
4
4
4
4
4
4
4
4
7
7
7
7
7
7
7
7
7
7
7
7
7
7
7
7
3
3
3
3
3
3
3
3
3
3
3
3
3
3
3
3
16
16
16
16
16
16
16
16
16
16
16
16
16
16
16
16
