# vtk DataFile Version 3.0
all_agent_disks_with_color
ASCII
DATASET POLYDATA
POINTS 323 float
5.15 0.202073 0
5.2 0.202073 0.02
5.19619 0.221207 0.02
5.18536 0.237428 0.02
5.16913 0.248267 0.02
5.15 0.252073 0.02
5.13087 0.248267 0.02
5.11464 0.237428 0.02
5.10381 0.221207 0.02
5.1 0.202073 0.02
5.10381 0.182938 0.02
5.11464 0.166717 0.02
5.13087 0.155879 0.02
5.15 0.152073 0.02
5.16913 0.155879 0.02
5.18536 0.166717 0.02
5.19619 0.182938 0.02
1.3 1.44338 0
1.35 1.44338 0.02
1.34619 1.46251 0.02
1.33536 1.47873 0.02
1.31913 1.48957 0.02
1.3 1.49338 0.02
1.28087 1.48957 0.02
1.26464 1.47873 0.02
1.25381 1.46251 0.02
1.25 1.44338 0.02
1.25381 1.42424 0.02
1.26464 1.40802 0.02
1.28087 1.39718 0.02
1.3 1.39338 0.02
1.31913 1.39718 0.02
1.33536 1.40802 0.02
1.34619 1.42424 0.02
0.70757 4.43332 0
0.90757 4.43332 0.02
0.892346 4.50986 0.02
0.848992 4.57475 0.02
0.784107 4.6181 0.02
0.70757 4.63332 0.02
0.631034 4.6181 0.02
0.566149 4.57475 0.02
0.522795 4.50986 0.02
0.50757 4.43332 0.02
0.522795 4.35679 0.02
0.566149 4.2919 0.02
0.631034 4.24855 0.02
0.70757 4.23332 0.02
0.784107 4.24855 0.02
0.848992 4.2919 0.02
0.892346 4.35679 0.02
10 8.14305 0
10.2 8.14305 0.02
10.1848 8.21959 0.02
10.1414 8.28447 0.02
10.0765 8.32783 0.02
10 8.34305 0.02
9.92346 8.32783 0.02
9.85858 8.28447 0.02
9.81522 8.21959 0.02
9.8 8.14305 0.02
9.81522 8.06651 0.02
9.85858 8.00163 0.02
9.92346 7.95827 0.02
10 7.94305 0.02
10.0765 7.95827 0.02
10.1414 8.00163 0.02
10.1848 8.06651 0.02
4.00366 2.38764 0
4.20366 2.38764 0.02
4.18844 2.46418 0.02
4.14508 2.52907 0.02
4.0802 2.57242 0.02
4.00366 2.58764 0.02
3.92712 2.57242 0.02
3.86224 2.52907 0.02
3.81888 2.46418 0.02
3.80366 2.38764 0.02
3.81888 2.31111 0.02
3.86224 2.24622 0.02
3.92712 2.20287 0.02
4.00366 2.18764 0.02
4.0802 2.20287 0.02
4.14508 2.24622 0.02
4.18844 2.31111 0.02
4.05753 9.89668 0
4.25753 9.89668 0.02
4.24231 9.97322 0.02
4.19895 10.0381 0.02
4.13407 10.0815 0.02
4.05753 10.0967 0.02
3.981 10.0815 0.02
3.91611 10.0381 0.02
3.87276 9.97322 0.02
3.85753 9.89668 0.02
3.87276 9.82015 0.02
3.91611 9.75526 0.02
3.981 9.71191 0.02
4.05753 9.69668 0.02
4.13407 9.71191 0.02
4.19895 9.75526 0.02
4.24231 9.82015 0.02
3.63644 3.03064 0
3.83644 3.03064 0.02
3.82121 3.10718 0.02
3.77786 3.17206 0.02
3.71297 3.21542 0.02
3.63644 3.23064 0.02
3.5599 3.21542 0.02
3.49502 3.17206 0.02
3.45166 3.10718 0.02
3.43644 3.03064 0.02
3.45166 2.9541 0.02
3.49502 2.88922 0.02
3.5599 2.84586 0.02
3.63644 2.83064 0.02
3.71297 2.84586 0.02
3.77786 2.88922 0.02
3.82121 2.9541 0.02
0.299734 0.230744 0
0.349734 0.230744 0.02
0.345927 0.249879 0.02
0.335089 0.2661 0.02
0.318868 0.276938 0.02
0.299734 0.280744 0.02
0.280599 0.276938 0.02
0.264378 0.2661 0.02
0.25354 0.249878 0.02
0.249734 0.230744 0.02
0.25354 0.21161 0.02
0.264378 0.195389 0.02
0.280599 0.18455 0.02
0.299734 0.180744 0.02
0.318868 0.18455 0.02
0.335089 0.195389 0.02
0.345927 0.21161 0.02
4.0621 1.7618 0
4.2621 1.7618 0.02
4.24688 1.83834 0.02
4.20353 1.90322 0.02
4.13864 1.94657 0.02
4.0621 1.9618 0.02
3.98557 1.94657 0.02
3.92068 1.90322 0.02
3.87733 1.83834 0.02
3.8621 1.7618 0.02
3.87733 1.68526 0.02
3.92068 1.62038 0.02
3.98557 1.57702 0.02
4.0621 1.5618 0.02
4.13864 1.57702 0.02
4.20353 1.62038 0.02
4.24688 1.68526 0.02
6.51143 7.43141 0
6.71143 7.43141 0.02
6.69621 7.50795 0.02
6.65285 7.57283 0.02
6.58797 7.61619 0.02
6.51143 7.63141 0.02
6.43489 7.61619 0.02
6.37001 7.57283 0.02
6.32665 7.50795 0.02
6.31143 7.43141 0.02
6.32665 7.35488 0.02
6.37001 7.28999 0.02
6.43489 7.24664 0.02
6.51143 7.23141 0.02
6.58797 7.24664 0.02
6.65285 7.28999 0.02
6.69621 7.35488 0.02
3.6 0.57735 0
3.65 0.57735 0.02
3.64619 0.596484 0.02
3.63536 0.612706 0.02
3.61913 0.623544 0.02
3.6 0.62735 0.02
3.58087 0.623544 0.02
3.56464 0.612706 0.02
3.55381 0.596484 0.02
3.55 0.57735 0.02
3.55381 0.558216 0.02
3.56464 0.541995 0.02
3.58087 0.531156 0.02
3.6 0.52735 0.02
3.61913 0.531156 0.02
3.63536 0.541995 0.02
3.64619 0.558216 0.02
7.39963 9.11315 0
7.59963 9.11315 0.02
7.5844 9.18969 0.02
7.54105 9.25458 0.02
7.47616 9.29793 0.02
7.39963 9.31315 0.02
7.32309 9.29793 0.02
7.2582 9.25458 0.02
7.21485 9.18969 0.02
7.19963 9.11315 0.02
7.21485 9.03662 0.02
7.2582 8.97173 0.02
7.32309 8.92838 0.02
7.39963 8.91315 0.02
7.47616 8.92838 0.02
7.54105 8.97173 0.02
7.5844 9.03662 0.02
7.69218 6.73247 0
7.89218 6.73247 0.02
7.87696 6.80901 0.02
7.8336 6.87389 0.02
7.76872 6.91725 0.02
7.69218 6.93247 0.02
7.61564 6.91725 0.02
7.55076 6.87389 0.02
7.50741 6.80901 0.02
7.49218 6.73247 0.02
7.50741 6.65593 0.02
7.55076 6.59105 0.02
7.61564 6.5477 0.02
7.69218 6.53247 0.02
7.76872 6.5477 0.02
7.8336 6.59105 0.02
7.87696 6.65593 0.02
1.5575 4.6945 0
1.7575 4.6945 0.02
1.74227 4.77104 0.02
1.69892 4.83592 0.02
1.63403 4.87927 0.02
1.5575 4.8945 0.02
1.48096 4.87927 0.02
1.41607 4.83592 0.02
1.37272 4.77104 0.02
1.3575 4.6945 0.02
1.37272 4.61796 0.02
1.41607 4.55308 0.02
1.48096 4.50972 0.02
1.5575 4.4945 0.02
1.63403 4.50972 0.02
1.69892 4.55308 0.02
1.74227 4.61796 0.02
0.147096 8.52401 0
0.347096 8.52401 0.02
0.331872 8.60055 0.02
0.288518 8.66543 0.02
0.223633 8.70879 0.02
0.147096 8.72401 0.02
0.0705598 8.70879 0.02
0.0056751 8.66543 0.02
-0.0376795 8.60055 0.02
-0.0529035 8.52401 0.02
-0.0376794 8.44747 0.02
0.00567513 8.38259 0.02
0.0705598 8.33924 0.02
0.147096 8.32401 0.02
0.223633 8.33924 0.02
0.288518 8.38259 0.02
0.331872 8.44747 0.02
4.43224 2.53264 0
4.63224 2.53264 0.02
4.61702 2.60918 0.02
4.57367 2.67406 0.02
4.50878 2.71741 0.02
4.43224 2.73264 0.02
4.35571 2.71741 0.02
4.29082 2.67406 0.02
4.24747 2.60918 0.02
4.23224 2.53264 0.02
4.24747 2.4561 0.02
4.29082 2.39122 0.02
4.35571 2.34786 0.02
4.43224 2.33264 0.02
4.50878 2.34786 0.02
4.57367 2.39122 0.02
4.61702 2.4561 0.02
5.64045 6.70431 0
5.84045 6.70431 0.02
5.82522 6.78084 0.02
5.78187 6.84573 0.02
5.71698 6.88908 0.02
5.64045 6.90431 0.02
5.56391 6.88908 0.02
5.49902 6.84573 0.02
5.45567 6.78084 0.02
5.44045 6.70431 0.02
5.45567 6.62777 0.02
5.49902 6.56289 0.02
5.56391 6.51953 0.02
5.64045 6.50431 0.02
5.71698 6.51953 0.02
5.78187 6.56289 0.02
5.82522 6.62777 0.02
3.56959 1.76077 0
3.76959 1.76077 0.02
3.75436 1.8373 0.02
3.71101 1.90219 0.02
3.64612 1.94554 0.02
3.56959 1.96077 0.02
3.49305 1.94554 0.02
3.42817 1.90219 0.02
3.38481 1.8373 0.02
3.36959 1.76077 0.02
3.38481 1.68423 0.02
3.42817 1.61935 0.02
3.49305 1.57599 0.02
3.56959 1.56077 0.02
3.64612 1.57599 0.02
3.71101 1.61935 0.02
3.75436 1.68423 0.02
3.81959 5.8964 0
4.01959 5.8964 0.02
4.00436 5.97293 0.02
3.96101 6.03782 0.02
3.89612 6.08117 0.02
3.81959 6.0964 0.02
3.74305 6.08117 0.02
3.67817 6.03782 0.02
3.63481 5.97293 0.02
3.61959 5.8964 0.02
3.63481 5.81986 0.02
3.67817 5.75498 0.02
3.74305 5.71162 0.02
3.81959 5.6964 0.02
3.89612 5.71162 0.02
3.96101 5.75498 0.02
4.00436 5.81986 0.02
POLYGONS 304 1216
3 0 1 2
3 0 2 3
3 0 3 4
3 0 4 5
3 0 5 6
3 0 6 7
3 0 7 8
3 0 8 9
3 0 9 10
3 0 10 11
3 0 11 12
3 0 12 13
3 0 13 14
3 0 14 15
3 0 15 16
3 0 16 1
3 17 18 19
3 17 19 20
3 17 20 21
3 17 21 22
3 17 22 23
3 17 23 24
3 17 24 25
3 17 25 26
3 17 26 27
3 17 27 28
3 17 28 29
3 17 29 30
3 17 30 31
3 17 31 32
3 17 32 33
3 17 33 18
3 34 35 36
3 34 36 37
3 34 37 38
3 34 38 39
3 34 39 40
3 34 40 41
3 34 41 42
3 34 42 43
3 34 43 44
3 34 44 45
3 34 45 46
3 34 46 47
3 34 47 48
3 34 48 49
3 34 49 50
3 34 50 35
3 51 52 53
3 51 53 54
3 51 54 55
3 51 55 56
3 51 56 57
3 51 57 58
3 51 58 59
3 51 59 60
3 51 60 61
3 51 61 62
3 51 62 63
3 51 63 64
3 51 64 65
3 51 65 66
3 51 66 67
3 51 67 52
3 68 69 70
3 68 70 71
3 68 71 72
3 68 72 73
3 68 73 74
3 68 74 75
3 68 75 76
3 68 76 77
3 68 77 78
3 68 78 79
3 68 79 80
3 68 80 81
3 68 81 82
3 68 82 83
3 68 83 84
3 68 84 69
3 85 86 87
3 85 87 88
3 85 88 89
3 85 89 90
3 85 90 91
3 85 91 92
3 85 92 93
3 85 93 94
3 85 94 95
3 85 95 96
3 85 96 97
3 85 97 98
3 85 98 99
3 85 99 100
3 85 100 101
3 85 101 86
3 102 103 104
3 102 104 105
3 102 105 106
3 102 106 107
3 102 107 108
3 102 108 109
3 102 109 110
3 102 110 111
3 102 111 112
3 102 112 113
3 102 113 114
3 102 114 115
3 102 115 116
3 102 116 117
3 102 117 118
3 102 118 103
3 119 120 121
3 119 121 122
3 119 122 123
3 119 123 124
3 119 124 125
3 119 125 126
3 119 126 127
3 119 127 128
3 119 128 129
3 119 129 130
3 119 130 131
3 119 131 132
3 119 132 133
3 119 133 134
3 119 134 135
3 119 135 120
3 136 137 138
3 136 138 139
3 136 139 140
3 136 140 141
3 136 141 142
3 136 142 143
3 136 143 144
3 136 144 145
3 136 145 146
3 136 146 147
3 136 147 148
3 136 148 149
3 136 149 150
3 136 150 151
3 136 151 152
3 136 152 137
3 153 154 155
3 153 155 156
3 153 156 157
3 153 157 158
3 153 158 159
3 153 159 160
3 153 160 161
3 153 161 162
3 153 162 163
3 153 163 164
3 153 164 165
3 153 165 166
3 153 166 167
3 153 167 168
3 153 168 169
3 153 169 154
3 170 171 172
3 170 172 173
3 170 173 174
3 170 174 175
3 170 175 176
3 170 176 177
3 170 177 178
3 170 178 179
3 170 179 180
3 170 180 181
3 170 181 182
3 170 182 183
3 170 183 184
3 170 184 185
3 170 185 186
3 170 186 171
3 187 188 189
3 187 189 190
3 187 190 191
3 187 191 192
3 187 192 193
3 187 193 194
3 187 194 195
3 187 195 196
3 187 196 197
3 187 197 198
3 187 198 199
3 187 199 200
3 187 200 201
3 187 201 202
3 187 202 203
3 187 203 188
3 204 205 206
3 204 206 207
3 204 207 208
3 204 208 209
3 204 209 210
3 204 210 211
3 204 211 212
3 204 212 213
3 204 213 214
3 204 214 215
3 204 215 216
3 204 216 217
3 204 217 218
3 204 218 219
3 204 219 220
3 204 220 205
3 221 222 223
3 221 223 224
3 221 224 225
3 221 225 226
3 221 226 227
3 221 227 228
3 221 228 229
3 221 229 230
3 221 230 231
3 221 231 232
3 221 232 233
3 221 233 234
3 221 234 235
3 221 235 236
3 221 236 237
3 221 237 222
3 238 239 240
3 238 240 241
3 238 241 242
3 238 242 243
3 238 243 244
3 238 244 245
3 238 245 246
3 238 246 247
3 238 247 248
3 238 248 249
3 238 249 250
3 238 250 251
3 238 251 252
3 238 252 253
3 238 253 254
3 238 254 239
3 255 256 257
3 255 257 258
3 255 258 259
3 255 259 260
3 255 260 261
3 255 261 262
3 255 262 263
3 255 263 264
3 255 264 265
3 255 265 266
3 255 266 267
3 255 267 268
3 255 268 269
3 255 269 270
3 255 270 271
3 255 271 256
3 272 273 274
3 272 274 275
3 272 275 276
3 272 276 277
3 272 277 278
3 272 278 279
3 272 279 280
3 272 280 281
3 272 281 282
3 272 282 283
3 272 283 284
3 272 284 285
3 272 285 286
3 272 286 287
3 272 287 288
3 272 288 273
3 289 290 291
3 289 291 292
3 289 292 293
3 289 293 294
3 289 294 295
3 289 295 296
3 289 296 297
3 289 297 298
3 289 298 299
3 289 299 300
3 289 300 301
3 289 301 302
3 289 302 303
3 289 303 304
3 289 304 305
3 289 305 290
3 306 307 308
3 306 308 309
3 306 309 310
3 306 310 311
3 306 311 312
3 306 312 313
3 306 313 314
3 306 314 315
3 306 315 316
3 306 316 317
3 306 317 318
3 306 318 319
3 306 319 320
3 306 320 321
3 306 321 322
3 306 322 307
CELL_DATA 304
SCALARS agent_type int 1
LOOKUP_TABLE default
-1
-1
-1
-1
-1
-1
-1
-1
-1
-1
-1
-1
-1
-1
-1
-1
-1
-1
-1
-1
-1
-1
-1
-1
-1
-1
-1
-1
-1
-1
-1
-1
1
1
1
1
1
1
1
1
1
1
1
1
1
1
1
1
1
1
1
1
1
1
1
1
1
1
1
1
1
1
1
1
1
1
1
1
1
1
1
1
1
1
1
1
1
1
1
1
1
1
1
1
1
1
1
1
1
1
1
1
1
1
1
1
1
1
1
1
1
1
1
1
1
1
1
1
1
1
1
1
-1
-1
-1
-1
-1
-1
-1
-1
-1
-1
-1
-1
-1
-1
-1
-1
1
1
1
1
1
1
1
1
1
1
1
1
1
1
1
1
1
1
1
1
1
1
1
1
1
1
1
1
1
1
1
1
-1
-1
-1
-1
-1
-1
-1
-1
-1
-1
-1
-1
-1
-1
-1
-1
1
1
1
1
1
1
1
1
1
1
1
1
1
1
1
1
1
1
1
1
1
1
1
1
1
1
1
1
1
1
1
1
1
1
1
1
1
1
1
1
1
1
1
1
1
1
1
1
1
1
1
1
1
1
1
1
1
1
1
1
1
1
1
1
1
1
1
1
1
1
1
1
1
1
1
1
1
1
1
1
1
1
1
1
1
1
1
1
1
1
1
1
1
1
1
1
1
1
1
1
1
1
1
1
1
1
1
1
1
1
1
1
1
1
1
1
1
1
1
1
1
1
1
1
1
1
1
1
SCALARS agent_id int 1
LOOKUP_TABLE default
18
18
18
18
18
18
18
18
18
18
18
18
18
18
18
18
22
22
22
22
22
22
22
22
22
22
22
22
22
22
22
22
8
8
8
8
8
8
8
8
8
8
8
8
8
8
8
8
7
7
7
7
7
7
7
7
7
7
7
7
7
7
7
7
2
2
2
2
2
2
2
2
2
2
2
2
2
2
2
2
6
6
6
6
6
6
6
6
6
6
6
6
6
6
6
6
11
11
11
11
11
11
11
11
11
11
11
11
11
11
11
11
17
17
17
17
17
17
17
17
17
17
17
17
17
17
17
17
3
3
3
3
3
3
3
3
3
3
3
3
3
3
3
3
4
4
4
4
4
4
4
4
4
4
4
4
4
4
4
4
21
21
21
21
21
21
21
21
21
21
21
21
21
21
21
21
9
9
9
9
9
9
9
9
9
9
9
9
9
9
9
9
13
13
13
13
13
13
13
13
13
13
13
13
13
13
13
13
15
15
15
15
15
15
15
15
15
15
15
15
15
15
15
15
1
1
1
1
1
1
1
1
1
1
1
1
1
1
1
1
10
10
10
10
10
10
10
10
10
10
10
10
10
10
10
10
14
14
14
14
14
14
14
14
14
14
14
14
14
14
14
14
5
5
5
5
5
5
5
5
5
5
5
5
5
5
5
5
12
12
12
12
12
12
12
12
12
12
12
12
12
12
12
12
